# vtk DataFile Version 3.0
vtk output
ASCII
DATASET UNSTRUCTURED_GRID
POINTS 27 float
0 0 0 0 0 1 0 0 2 
0 1 0 0 1 1 0 1 2 
0 2 0 0 2 1 0 2 2 
1 0 0 1 0 1 1 0 2 
1 1 0 1 1 1 1 1 2 
1 2 0 1 2 1 1 2 2 
2 0 0 2 0 1 2 0 2 
2 1 0 2 1 1 2 1 2 
2 2 0 2 2 1 2 2 2 

CELLS 8 72
8 0 9 3 12 1 10 4 13 
8 1 10 4 13 2 11 5 14 
8 3 12 6 15 4 13 7 16 
8 4 13 7 16 5 14 8 17 
8 9 18 12 21 10 19 13 22 
8 10 19 13 22 11 20 14 23 
8 12 21 15 24 13 22 16 25 
8 13 22 16 25 14 23 17 26 

CELL_TYPES 8
11
11
11
11
11
11
11
11

CELL_DATA 8
SCALARS scalars float
LOOKUP_TABLE default
0 0.4 0.4 0 0.4 0 0 0.4 
FIELD FieldData 3
ramp1 1 8 float
0.1 0.2 0.3 0.4 0.5 0.6 0.7 0.8 
ramp2 1 8 float
8.1 7.2 6.3 5.4 4.5 3.6 2.7 1.8 
vects 3 8 float
-1 -1 -1 -1 -1 1 -1 1 -1 
-1 1 1 1 -1 -1 1 -1 1 
1 1 -1 1 1 1 
POINT_DATA 27
SCALARS scalars float
LOOKUP_TABLE default
0.4 0.4 0.4 0.4 1 0.4 0.4 0.4 0.4 
0.4 1 0.4 1 0.4 1 0.4 1 0.4 
0.4 0.4 0.4 0.4 1 0.4 0.4 0.4 0.4 

FIELD FieldData 4
xRamp 1 27 float
0 0 0 0 0 0 0 0 0 
0.4 0.4 0.4 0.4 0.4 0.4 0.4 0.4 0.4 
0.8 0.8 0.8 0.8 0.8 0.8 0.8 0.8 0.8 

yRamp 1 27 float
0.1 0.1 0.1 0.5 0.5 0.5 0.9 0.9 0.9 
0.1 0.1 0.1 0.5 0.5 0.5 0.9 0.9 0.9 
0.1 0.1 0.1 0.5 0.5 0.5 0.9 0.9 0.9 

zRamp 1 27 float
0.2 0.6 1 0.2 0.6 1 0.2 0.6 1 
0.2 0.6 1 0.2 0.6 1 0.2 0.6 1 
0.2 0.6 1 0.2 0.6 1 0.2 0.6 1 

outVect 3 27 float
-1 -1 -1 
-1 -1 0 
-1 -1 1 
-1 0 -1 
-1 0 0 
-1 0 1 
-1 1 -1 
-1 1 0 
-1 1 1 
0 -1 -1 
0 -1 0 
0 -1 1 
0 0 -1 
0 0 0 
0 0 1 
0 1 -1 
0 1 0 
0 1 1 
1 -1 -1 
1 -1 0 
1 -1 1 
1 0 -1 
1 0 0 
1 0 1 
1 1 -1 
1 1 0 
1 1 1 


